 Gaussian 09, Revision A.02,
 Gaussian 09:  EM64L-G09RevA.02 11-Jun-2009

 -------------------------------------------------------------
 #HF/6-31G* SCF=tight Test Pop=MK iop(6/33=2) iop(6/42=6) fopt
 -------------------------------------------------------------

 ---------------------
 remark line goes here
 ---------------------
 Symbolic Z-matrix:
 Charge =  0 Multiplicity = 1

 SCF Done:  E(RHF) =  -829.754045847     A.U. after   15 cycles
 SCF Done:  E(RHF) =  -829.798658832     A.U. after   14 cycles
 SCF Done:  E(RHF) =  -829.810206430     A.U. after   14 cycles
 SCF Done:  E(RHF) =  -829.811197981     A.U. after   13 cycles
 SCF Done:  E(RHF) =  -829.811351271     A.U. after   12 cycles
 SCF Done:  E(RHF) =  -829.811466379     A.U. after   11 cycles
 SCF Done:  E(RHF) =  -829.811472813     A.U. after   10 cycles
 SCF Done:  E(RHF) =  -829.811473947     A.U. after    9 cycles
 SCF Done:  E(RHF) =  -829.811474787     A.U. after    8 cycles
 SCF Done:  E(RHF) =  -829.811475105     A.U. after    8 cycles
 SCF Done:  E(RHF) =  -829.811503837     A.U. after   13 cycles
 SCF Done:  E(RHF) =  -829.811510802     A.U. after   11 cycles
 SCF Done:  E(RHF) =  -829.811516276     A.U. after   10 cycles
 SCF Done:  E(RHF) =  -829.811518302     A.U. after   11 cycles
 SCF Done:  E(RHF) =  -829.811524026     A.U. after   11 cycles
 SCF Done:  E(RHF) =  -829.811521983     A.U. after   11 cycles
 SCF Done:  E(RHF) =  -829.811526778     A.U. after   10 cycles
 SCF Done:  E(RHF) =  -829.811527062     A.U. after    9 cycles
 SCF Done:  E(RHF) =  -829.811527178     A.U. after    9 cycles
 SCF Done:  E(RHF) =  -829.811527195     A.U. after    6 cycles
 Optimization completed.
    -- Stationary point found.

                         Standard orientation:
 ---------------------------------------------------------------------
 Center     Atomic      Atomic             Coordinates (Angstroms)
 Number     Number       Type             X           Y           Z
 ---------------------------------------------------------------------
      1          7           0       -0.621342   -0.094395   -0.067418
      2          6           0       -1.868921    0.476214   -0.085418
      3          8           0       -4.843680   -1.544831    0.527070
      4          6           0        0.512025    0.630587   -0.267781
      5          7           0       -2.046307    1.793305   -0.314432
      6          6           0        0.335223    1.961452   -0.495228
      7          7           0       -0.675093   -1.418100    0.202222
      8          6           0       -0.977728    2.492612   -0.506505
      9          7           0       -4.837749    0.657483    0.097636
     10          6           0       -1.943665   -1.672766    0.342602
     11          6           0       -2.762867   -0.542302    0.177961
     12          6           0        1.846678   -0.017507   -0.242655
     13          6           0        2.884734    0.619134    0.433095
     14          6           0        4.168440    0.095279    0.443150
     15          6           0        4.401528   -1.082920   -0.257444
     16          6           0        2.096210   -1.201523   -0.924788
     17          6           0        3.378036   -1.722252   -0.934352
     18          6           0       -4.233677   -0.534537    0.285728
     19          6           0        5.281684    0.770969    1.210117
     20          1           0        1.176687    2.593288   -0.693434
     21          1           0       -1.115625    3.543731   -0.692195
     22          1           0       -2.270647   -2.667331    0.564047
     23          1           0        2.682277    1.525245    0.975338
     24          1           0        5.391157   -1.506045   -0.269661
     25          1           0        1.303891   -1.708954   -1.437379
     26          1           0        3.576814   -2.632967   -1.469616
     27          1           0       -5.828469    0.693287    0.171008
     28          1           0       -4.323349    1.487251   -0.092952
     29          1           0        6.188052    0.827713    0.616619
     30          1           0        5.517977    0.221477    2.116690
     31          1           0        5.007903    1.779263    1.498017
 ---------------------------------------------------------------------

 The electronic state is 1-A.
 Alpha  occ. eigenvalues --  -20.50099 -15.68537 -15.59228 -15.59215 -15.56055
 Alpha  occ. eigenvalues --  -11.33951 -11.33894 -11.33022 -11.31524 -11.26951
 Alpha  occ. eigenvalues --  -11.26689 -11.25585 -11.25552 -11.25123 -11.24805
 Alpha  occ. eigenvalues --  -11.24639 -11.24453 -11.23522 -11.22153  -1.42905
 Alpha  occ. eigenvalues --   -1.36939  -1.28982  -1.20444  -1.19314  -1.16644
 Alpha  occ. eigenvalues --   -1.09373  -1.06453  -1.05442  -1.02988  -0.95306
 Alpha  occ. eigenvalues --   -0.92458  -0.89709  -0.85454  -0.84238  -0.82538
 Alpha  occ. eigenvalues --   -0.77894  -0.74671  -0.72161  -0.70619  -0.70142
 Alpha  occ. eigenvalues --   -0.67953  -0.67441  -0.65053  -0.64764  -0.63963
 Alpha  occ. eigenvalues --   -0.60316  -0.60014  -0.59144  -0.59001  -0.58294
 Alpha  occ. eigenvalues --   -0.56883  -0.56255  -0.55547  -0.52674  -0.51587
 Alpha  occ. eigenvalues --   -0.51172  -0.50325  -0.48794  -0.45281  -0.43616
 Alpha  occ. eigenvalues --   -0.41000  -0.39130  -0.36688  -0.35280  -0.34000
 Alpha  occ. eigenvalues --   -0.30867
 Alpha virt. eigenvalues --    0.06387   0.11796   0.13299   0.14558   0.18778
 Alpha virt. eigenvalues --    0.22908   0.23956   0.25796   0.26736   0.27361
 Alpha virt. eigenvalues --    0.28910   0.29778   0.30533   0.30802   0.31423

 Mulliken atomic charges:
              1
     1  N   -0.621263
     2  C    0.737860
     3  O   -0.632100
     4  C    0.454727
     5  N   -0.633182
     6  C   -0.383397
     7  N   -0.323791
     8  C    0.129443
     9  N   -0.963565
    10  C    0.128289
    11  C   -0.370106
    12  C   -0.004742
    13  C   -0.234153
    14  C    0.035207
    15  C   -0.207777
    16  C   -0.166778
    17  C   -0.205611
    18  C    0.813174
    19  C   -0.507866
    20  H    0.236139
    21  H    0.225264
    22  H    0.253457
    23  H    0.214551
    24  H    0.207373
    25  H    0.241967
    26  H    0.213613
    27  H    0.390509
    28  H    0.429527
    29  H    0.180061
    30  H    0.187872
    31  H    0.175296
 Sum of Mulliken atomic charges =   0.00000

 Dipole moment (field-independent basis, Debye):
    X=              5.9721    Y=              4.5201    Z=             -1.2001  Tot=              7.5854
 Quadrupole moment (field-independent basis, Debye-Ang):
   XX=           -112.4865   YY=           -103.1911   ZZ=           -111.1276
   XY=            -14.9454   XZ=              4.6149   YZ=              3.4661

 Normal termination of Gaussian 09 at Wed Jul  5 15:51:24 2023.
