 Gaussian 09, Revision A.02,
 Gaussian 09:  EM64L-G09RevA.02 11-Jun-2009

 -------------------------------------------------------------
 #HF/6-31G* SCF=tight Test Pop=MK iop(6/33=2) iop(6/42=6) fopt
 -------------------------------------------------------------

 ---------------------
 remark line goes here
 ---------------------
 Symbolic Z-matrix:
 Charge =  0 Multiplicity = 1

 SCF Done:  E(RHF) =  -1215.85574877     A.U. after   15 cycles
 SCF Done:  E(RHF) =  -1215.90038726     A.U. after   13 cycles
 SCF Done:  E(RHF) =  -1215.91182653     A.U. after   15 cycles
 SCF Done:  E(RHF) =  -1215.92708801     A.U. after   13 cycles
 SCF Done:  E(RHF) =  -1215.93045223     A.U. after   13 cycles
 SCF Done:  E(RHF) =  -1215.93512435     A.U. after   15 cycles
 SCF Done:  E(RHF) =  -1215.93773167     A.U. after   13 cycles
 SCF Done:  E(RHF) =  -1215.93919735     A.U. after   13 cycles
 SCF Done:  E(RHF) =  -1215.93976161     A.U. after   12 cycles
 SCF Done:  E(RHF) =  -1215.94070064     A.U. after   13 cycles
 SCF Done:  E(RHF) =  -1215.95076846     A.U. after   10 cycles
 SCF Done:  E(RHF) =  -1215.95076980     A.U. after    9 cycles
 SCF Done:  E(RHF) =  -1215.95077079     A.U. after    8 cycles
 SCF Done:  E(RHF) =  -1215.95077177     A.U. after    8 cycles
 SCF Done:  E(RHF) =  -1215.95077286     A.U. after    9 cycles
 SCF Done:  E(RHF) =  -1215.95077408     A.U. after    9 cycles
 SCF Done:  E(RHF) =  -1215.95077538     A.U. after    9 cycles
 SCF Done:  E(RHF) =  -1215.95077636     A.U. after    9 cycles
 SCF Done:  E(RHF) =  -1215.95077664     A.U. after    8 cycles
 SCF Done:  E(RHF) =  -1215.95077670     A.U. after    8 cycles
 Optimization completed.
    -- Stationary point found.

                         Standard orientation:
 ---------------------------------------------------------------------
 Center     Atomic      Atomic             Coordinates (Angstroms)
 Number     Number       Type             X           Y           Z
 ---------------------------------------------------------------------
      1          7           0       -2.701242    0.738816   -0.333044
      2          6           0       -1.735778   -0.100830   -0.323012
      3          8           0       -5.309217   -2.753869    0.241079
      4          6           0       -0.915217    1.866072   -0.023107
      5          7           0       -0.547136    0.556985   -0.126097
      6          6           0        1.517020   -0.137321   -1.209873
      7          7           0       -2.183212    1.992154   -0.141788
      8          6           0        2.791449   -0.679580   -1.154213
      9          6           0        0.767153    0.003376   -0.057576
     10          6           0        3.320558   -1.086428    0.077853
     11          6           0        1.285568   -0.391766    1.158645
     12          6           0        2.560669   -0.937955    1.242551
     13          6           0       -0.894560    4.566007    0.260617
     14          6           0       -1.827812   -1.586245   -0.510284
     15          6           0       -3.250745   -2.113317   -0.714213
     16          6           0       -4.134138   -2.033227    0.520815
     17          6           0        4.715624   -1.674255    0.115801
     18          6           0        3.081732   -1.350841    2.603562
     19          6           0        3.590708   -0.819254   -2.430338
     20         16           0        0.245473    3.158413    0.238711
     21          1           0       -5.956690   -2.572471    0.906877
     22          1           0        1.103781    0.183223   -2.148959
     23          1           0        0.691986   -0.266832    2.045928
     24          1           0       -0.281864    5.443895    0.416481
     25          1           0       -1.606720    4.464089    1.064836
     26          1           0       -1.419109    4.642743   -0.679224
     27          1           0       -1.364686   -2.077678    0.341744
     28          1           0       -1.221993   -1.856081   -1.370616
     29          1           0       -3.733155   -1.583630   -1.526715
     30          1           0       -3.183549   -3.157233   -1.004327
     31          1           0       -3.618263   -2.471057    1.376046
     32          1           0       -4.359221   -1.000406    0.755025
     33          1           0        5.004068   -1.986279    1.108139
     34          1           0        5.451834   -0.952658   -0.226288
     35          1           0        4.792300   -2.540973   -0.533450
     36          1           0        3.305851   -2.412069    2.643550
     37          1           0        2.345672   -1.143014    3.370198
     38          1           0        3.987502   -0.813953    2.865955
     39          1           0        3.032213   -0.440750   -3.277362
     40          1           0        3.839200   -1.856334   -2.634748
     41          1           0        4.524761   -0.268499   -2.377953
 ---------------------------------------------------------------------

 The electronic state is 1-A.
 Alpha  occ. eigenvalues --  -91.95664 -20.54413 -15.62843 -15.56297 -15.56206
 Alpha  occ. eigenvalues --  -11.31944 -11.29649 -11.28777 -11.25693 -11.25499
 Alpha  occ. eigenvalues --  -11.25396 -11.25273 -11.25219 -11.24425 -11.24411
 Alpha  occ. eigenvalues --  -11.24051 -11.23350 -11.23307 -11.23255 -11.21428
 Alpha  occ. eigenvalues --   -8.96694  -6.65003  -6.64840  -6.64643  -1.40561
 Alpha  occ. eigenvalues --   -1.35054  -1.24230  -1.17108  -1.13485  -1.07470
 Alpha  occ. eigenvalues --   -1.06682  -1.05828  -1.02477  -0.98445  -0.94809
 Alpha  occ. eigenvalues --   -0.94070  -0.93218  -0.89921  -0.84330  -0.82706
 Alpha  occ. eigenvalues --   -0.80868  -0.77289  -0.75971  -0.71157  -0.69551
 Alpha  occ. eigenvalues --   -0.68659  -0.66323  -0.64660  -0.63420  -0.61365
 Alpha  occ. eigenvalues --   -0.61225  -0.60334  -0.59383  -0.58589  -0.58335
 Alpha  occ. eigenvalues --   -0.58280  -0.58072  -0.56884  -0.56220  -0.55717
 Alpha  occ. eigenvalues --   -0.54911  -0.53790  -0.53416  -0.50745  -0.50576
 Alpha  occ. eigenvalues --   -0.50495  -0.49494  -0.49221  -0.47958  -0.46561
 Alpha  occ. eigenvalues --   -0.44677  -0.42855  -0.41476  -0.41167  -0.40340
 Alpha  occ. eigenvalues --   -0.33768  -0.33581  -0.31377
 Alpha virt. eigenvalues --    0.11951   0.13245   0.18797   0.19114   0.21784
 Alpha virt. eigenvalues --    0.23121   0.23274   0.24190   0.24629   0.25217
 Alpha virt. eigenvalues --    0.25581   0.27270   0.27893   0.28090   0.29050

 Mulliken atomic charges:
              1
     1  N   -0.398451
     2  C    0.569610
     3  O   -0.748442
     4  C    0.341575
     5  N   -0.776648
     6  C   -0.221900
     7  N   -0.370610
     8  C    0.024894
     9  C    0.250566
    10  C   -0.003239
    11  C   -0.222968
    12  C    0.020665
    13  C   -0.637006
    14  C   -0.390678
    15  C   -0.320240
    16  C    0.005786
    17  C   -0.517923
    18  C   -0.517932
    19  C   -0.514254
    20  S    0.188225
    21  H    0.438351
    22  H    0.224675
    23  H    0.222907
    24  H    0.194524
    25  H    0.222110
    26  H    0.222915
    27  H    0.186941
    28  H    0.195368
    29  H    0.198273
    30  H    0.178891
    31  H    0.123785
    32  H    0.185315
    33  H    0.187185
    34  H    0.183351
    35  H    0.181464
    36  H    0.181058
    37  H    0.182807
    38  H    0.183712
    39  H    0.182865
    40  H    0.180146
    41  H    0.182327
 Sum of Mulliken atomic charges =   0.00000

 Dipole moment (field-independent basis, Debye):
    X=              5.4981    Y=             -1.1818    Z=              1.4697  Tot=              5.8126
 Quadrupole moment (field-independent basis, Debye-Ang):
   XX=           -131.6645   YY=           -126.1431   ZZ=           -120.2181
   XY=             -5.2852   XZ=             -9.6805   YZ=             -2.2706

 Normal termination of Gaussian 09 at Wed Jul  5 16:30:08 2023.
