 Gaussian 09, Revision A.02,
 Gaussian 09:  EM64L-G09RevA.02 11-Jun-2009

 ------------------------------------------------------------
 #HF/6-31G* SCF=tight Test Pop=MK iop(6/33=2) iop(6/42=6) opt
 ------------------------------------------------------------

 ---------------------
 remark line goes here
 ---------------------
 Symbolic Z-matrix:
 Charge =  1 Multiplicity = 1

 SCF Done:  E(RHF) =  -1291.91779780     A.U. after   17 cycles
 SCF Done:  E(RHF) =  -1291.93974725     A.U. after   14 cycles
 SCF Done:  E(RHF) =  -1291.95505191     A.U. after   18 cycles
 SCF Done:  E(RHF) =  -1291.95743355     A.U. after   13 cycles
 SCF Done:  E(RHF) =  -1291.95869250     A.U. after   13 cycles
 SCF Done:  E(RHF) =  -1291.95919628     A.U. after   13 cycles
 SCF Done:  E(RHF) =  -1291.95996135     A.U. after   12 cycles
 SCF Done:  E(RHF) =  -1291.96045107     A.U. after   13 cycles
 SCF Done:  E(RHF) =  -1291.96069573     A.U. after   12 cycles
 SCF Done:  E(RHF) =  -1291.96084954     A.U. after   12 cycles
 SCF Done:  E(RHF) =  -1291.96153576     A.U. after   11 cycles
 SCF Done:  E(RHF) =  -1291.96159107     A.U. after   11 cycles
 SCF Done:  E(RHF) =  -1291.96164391     A.U. after   11 cycles
 SCF Done:  E(RHF) =  -1291.96166110     A.U. after   12 cycles
 SCF Done:  E(RHF) =  -1291.96167412     A.U. after   10 cycles
 SCF Done:  E(RHF) =  -1291.96167734     A.U. after   10 cycles
 SCF Done:  E(RHF) =  -1291.96167824     A.U. after    9 cycles
 SCF Done:  E(RHF) =  -1291.96167950     A.U. after   11 cycles
 SCF Done:  E(RHF) =  -1291.96167980     A.U. after    9 cycles
 SCF Done:  E(RHF) =  -1291.96167991     A.U. after    8 cycles
 Optimization completed.
    -- Stationary point found.

                         Standard orientation:
 ---------------------------------------------------------------------
 Center     Atomic      Atomic             Coordinates (Angstroms)
 Number     Number       Type             X           Y           Z
 ---------------------------------------------------------------------
      1          6           0       -7.075256   -1.020284   -0.308264
      2          6           0       -0.766369    3.218102   -1.744322
      3          6           0        2.410840   -0.273601   -0.259065
      4          6           0        2.591512   -1.416727   -0.977834
      5          6           0        3.871254   -1.998246   -1.105337
      6          6           0        4.960407   -1.420951   -0.527795
      7          6           0        4.812895   -0.226509    0.237340
      8          6           0        3.532801    0.336953    0.383051
      9          6           0        3.428556    1.494032    1.197384
     10          6           0        5.784995    1.373084    1.525022
     11          6           0        4.545436    2.013708    1.764317
     12          6           0       -5.344486   -0.981436    1.403748
     13          6           0        6.259207   -2.028805   -0.688153
     14          6           0       -4.706285   -0.931933   -0.007124
     15          6           0       -5.822160   -0.423638   -0.911254
     16          6           0       -1.187370    0.330375    0.459486
     17          6           0        0.000655   -0.526679    0.034005
     18          6           0        0.878126    1.393476   -1.115501
     19          6           0       -0.338988    2.207430   -0.698492
     20          6           0       -2.436398   -0.514773    0.615419
     21          9           0       -5.924763    0.935762   -0.757684
     22          7           0       -6.835153   -0.770976    1.154659
     23          7           0       -3.530395   -0.122055   -0.076622
     24          7           0        1.139914    0.355653   -0.122466
     25          7           0        5.913673    0.306988    0.806331
     26          7           0        7.254400   -2.551411   -0.849043
     27          8           0       -1.439532    1.337132   -0.475156
     28          8           0       -2.471918   -1.479973    1.332332
     29          1           0       -7.137493   -2.087307   -0.465303
     30          1           0       -7.986304   -0.536726   -0.624020
     31          1           0        0.029278    3.930593   -1.931566
     32          1           0       -1.638165    3.764935   -1.404687
     33          1           0       -1.011872    2.723364   -2.677550
     34          1           0        1.763736   -1.891364   -1.469390
     35          1           0        3.985740   -2.899716   -1.677386
     36          1           0        2.464925    1.933070    1.366408
     37          1           0        6.684757    1.771317    1.960711
     38          1           0        4.506359    2.885400    2.390209
     39          1           0       -4.995391   -0.194278    2.050329
     40          1           0       -5.213192   -1.934321    1.887626
     41          1           0       -4.466284   -1.947065   -0.299313
     42          1           0       -5.689341   -0.647993   -1.957461
     43          1           0       -0.975106    0.763396    1.434160
     44          1           0       -0.260856   -1.045443   -0.890087
     45          1           0        0.209072   -1.265370    0.793877
     46          1           0        1.739414    2.044572   -1.184838
     47          1           0        0.708395    0.960249   -2.102942
     48          1           0       -0.115125    2.711765    0.238474
     49          1           0       -7.409092   -1.353651    1.745192
     50          1           0       -7.082586    0.184749    1.364603
     51          1           0       -3.489697    0.701846   -0.635107
 ---------------------------------------------------------------------

 The electronic state is 1-A.
 Alpha  occ. eigenvalues --  -26.46267 -20.67970 -20.65618 -15.88175 -15.72274
 Alpha  occ. eigenvalues --  -15.65984 -15.62898 -15.60823 -11.50023 -11.47896
 Alpha  occ. eigenvalues --  -11.47465 -11.46306 -11.44998 -11.40117 -11.38231
 Alpha  occ. eigenvalues --  -11.36275 -11.35673 -11.35342 -11.34708 -11.34317
 Alpha  occ. eigenvalues --  -11.33578 -11.32764 -11.32569 -11.32189 -11.31497
 Alpha  occ. eigenvalues --  -11.31080 -11.30796 -11.30738  -1.77696  -1.53339
 Alpha  occ. eigenvalues --   -1.51894  -1.50487  -1.38350  -1.35283  -1.33817
 Alpha  occ. eigenvalues --   -1.26499  -1.25219  -1.22204  -1.20383  -1.17795
 Alpha  occ. eigenvalues --   -1.16948  -1.11465  -1.10170  -1.07939  -1.06960
 Alpha  occ. eigenvalues --   -1.03636  -1.01298  -0.98787  -0.98181  -0.94745
 Alpha  occ. eigenvalues --   -0.94248  -0.93653  -0.92383  -0.91189  -0.88996
 Alpha  occ. eigenvalues --   -0.88534  -0.85453  -0.85187  -0.83245  -0.81590
 Alpha  occ. eigenvalues --   -0.81150  -0.79938  -0.78946  -0.78326  -0.77847
 Alpha  occ. eigenvalues --   -0.77153  -0.76698  -0.75321  -0.74058  -0.73617
 Alpha  occ. eigenvalues --   -0.72580  -0.72126  -0.71009  -0.70593  -0.69511
 Alpha  occ. eigenvalues --   -0.68581  -0.67281  -0.67012  -0.65961  -0.65885
 Alpha  occ. eigenvalues --   -0.64622  -0.64476  -0.63795  -0.63325  -0.63180
 Alpha  occ. eigenvalues --   -0.61545  -0.59686  -0.58993  -0.58415  -0.57383
 Alpha  occ. eigenvalues --   -0.55924  -0.54718  -0.53759  -0.52969  -0.51999
 Alpha  occ. eigenvalues --   -0.50619  -0.47682  -0.47394  -0.45859  -0.40102
 Alpha  occ. eigenvalues --   -0.37857
 Alpha virt. eigenvalues --   -0.00064   0.00261   0.03922   0.04864   0.06805
 Alpha virt. eigenvalues --    0.07930   0.08504   0.10444   0.11770   0.12046
 Alpha virt. eigenvalues --    0.13437   0.13839   0.14252   0.15198   0.15362

 Mulliken atomic charges:
              1
     1  C   -0.232423
     2  C   -0.497962
     3  C    0.307575
     4  C   -0.249820
     5  C   -0.174989
     6  C   -0.010941
     7  C    0.287234
     8  C   -0.042579
     9  C   -0.116548
    10  C    0.087515
    11  C   -0.272285
    12  C   -0.180587
    13  C    0.311887
    14  C    0.035106
    15  C    0.227571
    16  C    0.125102
    17  C   -0.123929
    18  C   -0.126196
    19  C    0.161041
    20  C    0.746203
    21  F   -0.406826
    22  N   -0.790609
    23  N   -0.839048
    24  N   -0.719196
    25  N   -0.578794
    26  N   -0.441406
    27  O   -0.705110
    28  O   -0.625780
    29  H    0.263082
    30  H    0.281603
    31  H    0.186995
    32  H    0.183108
    33  H    0.177826
    34  H    0.219870
    35  H    0.253834
    36  H    0.230158
    37  H    0.228516
    38  H    0.226654
    39  H    0.271873
    40  H    0.279906
    41  H    0.251713
    42  H    0.257794
    43  H    0.211973
    44  H    0.158464
    45  H    0.231551
    46  H    0.204587
    47  H    0.168167
    48  H    0.172271
    49  H    0.469037
    50  H    0.469179
    51  H    0.447631
 Sum of Mulliken atomic charges =   1.00000

 Dipole moment (field-independent basis, Debye):
    X=            -33.9969    Y=              1.0893    Z=              2.2214  Tot=             34.0868
 Quadrupole moment (field-independent basis, Debye-Ang):
   XX=             -7.7939   YY=           -150.3593   ZZ=           -146.9702
   XY=             56.7686   XZ=            -10.2341   YZ=              5.6975

 Normal termination of Gaussian 09 at Thu Dec 14 19:31:32 2023.
